 Gaussian 16, Revision A.03,
 Gaussian 16:  ES64L-G16RevA.03 25-Dec-2016

 ----------------------------------------------------------------------
 #p pbe1pbe/epr-II scrf(cpcm,solvent=dmso) scf(maxcycle=512) integral(g
 rid=ultrafine,noxctest) gfinput iop(6/7=3) iop(6/82=1) iop(3/32=2) iop
 (5/13=1) output(SpinRotation) pop=nbo
 ----------------------------------------------------------------------

 ---------------------------------------------
 EPR params. calculation of TMPDA^{.+} in DMSO
 ---------------------------------------------
 Symbolic Z-matrix:
 Charge =  1 Multiplicity = 2

                         Standard orientation:
 ---------------------------------------------------------------------
 Center     Atomic      Atomic             Coordinates (Angstroms)
 Number     Number       Type             X           Y           Z
 ---------------------------------------------------------------------
      1          6           0        0.686050    1.212191   -0.000020
      2          6           0       -0.686046    1.212193   -0.000009
      3          6           0       -1.447507    0.000002   -0.000005
      4          6           0       -0.686050   -1.212191   -0.000018
      5          6           0        0.686045   -1.212194   -0.000008
      6          6           0        1.447507   -0.000003   -0.000006
      7          7           0        2.807618   -0.000001    0.000005
      8          7           0       -2.807618    0.000001    0.000007
      9          6           0        3.628668    1.212387   -0.000338
     10          6           0        3.628677   -1.212384    0.000360
     11          6           0       -3.628668   -1.212388   -0.000340
     12          6           0       -3.628677    1.212385    0.000361
     13          1           0        1.177535    2.174420    0.000014
     14          1           0       -1.177527    2.174423   -0.000061
     15          1           0       -1.177536   -2.174419    0.000017
     16          1           0        1.177526   -2.174424   -0.000057
     17          1           0        3.033150    2.118032   -0.001303
     18          1           0        4.267818    1.212495    0.888447
     19          1           0        4.268748    1.211277   -0.888449
     20          1           0        3.033168   -2.118034    0.001354
     21          1           0        4.267815   -1.212505   -0.888434
     22          1           0        4.268769   -1.211251    0.888462
     23          1           0       -3.033150   -2.118032   -0.001306
     24          1           0       -4.267819   -1.212496    0.888445
     25          1           0       -4.268748   -1.211277   -0.888452
     26          1           0       -3.033168    2.118034    0.001365
     27          1           0       -4.267808    1.212510   -0.888438
     28          1           0       -4.268776    1.211246    0.888457
 ---------------------------------------------------------------------

 SCF Done:  E(UPBE1PBE) =  -499.506524585     A.U. after   13 cycles

      1  C    Isotropic =    70.1460   Anisotropy =   159.0679

      2  C    Isotropic =    70.1461   Anisotropy =   159.0674

      3  C    Isotropic =    48.3140   Anisotropy =   154.6331

      4  C    Isotropic =    70.1459   Anisotropy =   159.0674

      5  C    Isotropic =    70.1463   Anisotropy =   159.0679

      6  C    Isotropic =    48.3142   Anisotropy =   154.6336

      7  N    Isotropic =   123.1740   Anisotropy =   108.8213

      8  N    Isotropic =   123.1750   Anisotropy =   108.8240

      9  C    Isotropic =   152.1091   Anisotropy =    54.6591

     10  C    Isotropic =   152.1091   Anisotropy =    54.6593

     11  C    Isotropic =   152.1087   Anisotropy =    54.6596

     12  C    Isotropic =   152.1087   Anisotropy =    54.6599

     13  H    Isotropic =    24.2126   Anisotropy =     9.8674

     14  H    Isotropic =    24.2127   Anisotropy =     9.8672

     15  H    Isotropic =    24.2126   Anisotropy =     9.8673

     16  H    Isotropic =    24.2127   Anisotropy =     9.8672

     17  H    Isotropic =    27.8111   Anisotropy =     7.4280

     18  H    Isotropic =    28.7313   Anisotropy =     8.9800

     19  H    Isotropic =    28.7312   Anisotropy =     8.9784

     20  H    Isotropic =    27.8112   Anisotropy =     7.4280

     21  H    Isotropic =    28.7313   Anisotropy =     8.9800

     22  H    Isotropic =    28.7313   Anisotropy =     8.9783

     23  H    Isotropic =    27.8111   Anisotropy =     7.4280

     24  H    Isotropic =    28.7313   Anisotropy =     8.9800

     25  H    Isotropic =    28.7312   Anisotropy =     8.9784

     26  H    Isotropic =    27.8112   Anisotropy =     7.4280

     27  H    Isotropic =    28.7312   Anisotropy =     8.9801

     28  H    Isotropic =    28.7312   Anisotropy =     8.9784

 The electronic state is 2-A.
 Alpha  occ. eigenvalues --  -14.48714 -14.48714 -10.33224 -10.33224 -10.28025
 Alpha  occ. eigenvalues --  -10.28025 -10.28024 -10.28024 -10.27888 -10.27887
 Alpha  occ. eigenvalues --  -10.27816 -10.27816  -1.02863  -1.02513  -0.90427
 Alpha  occ. eigenvalues --   -0.81586  -0.81357  -0.77144  -0.76095  -0.74846
 Alpha  occ. eigenvalues --   -0.68299  -0.65591  -0.62011  -0.58608  -0.55525
 Alpha  occ. eigenvalues --   -0.54330  -0.52085  -0.51785  -0.50043  -0.49626
 Alpha  occ. eigenvalues --   -0.47358  -0.45113  -0.44903  -0.43591  -0.43001
 Alpha  occ. eigenvalues --   -0.42996  -0.42815  -0.42711  -0.42651  -0.40884
 Alpha  occ. eigenvalues --   -0.37450  -0.37026  -0.30491  -0.30419  -0.21849
 Alpha virt. eigenvalues --   -0.03968  -0.01519   0.01151   0.02164   0.04408
 Alpha virt. eigenvalues --    0.05099   0.05557   0.06035   0.07340   0.08186
 Alpha virt. eigenvalues --    0.09547   0.11198   0.11748   0.11801   0.12371

  Beta  occ. eigenvalues --  -14.47978 -14.47978 -10.33099 -10.33098 -10.28059
  Beta  occ. eigenvalues --  -10.28059 -10.28058 -10.28058 -10.27801 -10.27800
  Beta  occ. eigenvalues --  -10.27728 -10.27728  -1.01699  -1.01297  -0.89817
  Beta  occ. eigenvalues --   -0.81134  -0.81023  -0.77006  -0.75981  -0.74692
  Beta  occ. eigenvalues --   -0.67650  -0.65219  -0.61647  -0.58304  -0.55163
  Beta  occ. eigenvalues --   -0.54089  -0.50532  -0.50260  -0.49842  -0.49249
  Beta  occ. eigenvalues --   -0.47283  -0.44799  -0.44796  -0.43386  -0.42765
  Beta  occ. eigenvalues --   -0.42758  -0.42582  -0.42574  -0.41594  -0.40840
  Beta  occ. eigenvalues --   -0.36879  -0.35350  -0.29844  -0.26695
  Beta virt. eigenvalues --   -0.13521  -0.02598   0.00801   0.01225   0.02230
  Beta virt. eigenvalues --    0.04442   0.05244   0.05614   0.06164   0.07480
  Beta virt. eigenvalues --    0.08234   0.09720   0.11452   0.11805   0.12660

 Mulliken charges and spin densities:
               1          2
     1  C   -0.191777   0.050158
     2  C   -0.191782   0.050157
     3  C    0.244078   0.099199
     4  C   -0.191777   0.050158
     5  C   -0.191782   0.050158
     6  C    0.244078   0.099198
     7  N    0.154961   0.291553
     8  N    0.154958   0.291553
     9  C   -0.439122  -0.017468
    10  C   -0.439122  -0.017468
    11  C   -0.439121  -0.017468
    12  C   -0.439121  -0.017468
    13  H    0.133345  -0.003643
    14  H    0.133346  -0.003643
    15  H    0.133344  -0.003643
    16  H    0.133346  -0.003643
    17  H    0.169241   0.000114
    18  H    0.189420   0.012738
    19  H    0.189375   0.012726
    20  H    0.169242   0.000114
    21  H    0.189421   0.012739
    22  H    0.189374   0.012725
    23  H    0.169242   0.000114
    24  H    0.189420   0.012738
    25  H    0.189375   0.012726
    26  H    0.169242   0.000114
    27  H    0.189421   0.012739
    28  H    0.189374   0.012725
 Sum of Mulliken charges =   1.00000   1.00000

 Dipole moment (field-independent basis, Debye):
    X=              0.0000    Y=              0.0000    Z=              0.0000  Tot=              0.0000
 Quadrupole moment (field-independent basis, Debye-Ang):
   XX=            -11.4404   YY=            -54.3408   ZZ=            -73.2402
   XY=              0.0000   XZ=              0.0000   YZ=              0.0000

 Summary of Natural Population Analysis:

                                       Natural Population
                Natural  -----------------------------------------------
    Atom  No    Charge         Core      Valence    Rydberg      Total
 -----------------------------------------------------------------------
      C    1   -0.07072      0.99964     2.06196    0.00912     3.07072
      C    2   -0.07073      0.99964     2.06196    0.00912     3.07073
      C    3    0.15656      0.99960     1.83065    0.01319     2.84344
      C    4   -0.07073      0.99964     2.06196    0.00912     3.07073
      C    5   -0.07072      0.99964     2.06196    0.00912     3.07072
      C    6    0.15656      0.99960     1.83065    0.01319     2.84344
      N    7   -0.04028      0.99975     2.53397    0.00656     3.54028
      N    8   -0.04028      0.99975     2.53397    0.00656     3.54028
      C    9   -0.18297      0.99973     2.17727    0.00596     3.18297
      C   10   -0.18297      0.99973     2.17727    0.00596     3.18297
      C   11   -0.18297      0.99973     2.17727    0.00596     3.18297
      C   12   -0.18297      0.99973     2.17727    0.00596     3.18297
      H   13    0.11010      0.00000     0.38899    0.00091     0.38990
      H   14    0.11010      0.00000     0.38898    0.00091     0.38990
      H   15    0.11010      0.00000     0.38898    0.00091     0.38990
      H   16    0.11010      0.00000     0.38898    0.00091     0.38990
      H   17    0.10518      0.00000     0.39414    0.00068     0.39482
      H   18    0.11513      0.00000     0.38415    0.00072     0.38487
      H   19    0.11513      0.00000     0.38415    0.00072     0.38487
      H   20    0.10518      0.00000     0.39414    0.00068     0.39482
      H   21    0.11513      0.00000     0.38415    0.00072     0.38487
      H   22    0.11513      0.00000     0.38415    0.00072     0.38487
      H   23    0.10518      0.00000     0.39414    0.00068     0.39482
      H   24    0.11513      0.00000     0.38415    0.00072     0.38487
      H   25    0.11513      0.00000     0.38415    0.00072     0.38487
      H   26    0.10518      0.00000     0.39414    0.00068     0.39482
      H   27    0.11513      0.00000     0.38415    0.00072     0.38487
      H   28    0.11513      0.00000     0.38415    0.00072     0.38487
 =======================================================================
   * Total *    1.00000     11.99617    31.89185    0.11197    44.00000

 Normal termination of Gaussian 16 at Wed Oct 25 09:54:46 2023.
